# Region type : patch inlet
# Faces       : 5
# Area        : 5.000000e-06
# Scale factor: 1.000000e+00
# Time        	average(p)
0.1           	1.121916e+05
