# Source1       : fieldValueDelta1.region1
# Source2       : fieldValueDelta1.region2
# Operation     : subtract
# Time          	p
0.1             	1.12191591e+05
