/*--------------------------------*- C++ -*----------------------------------*\
| =========                 |                                                 |
| \\      /  F ield         | OpenFOAM: The Open Source CFD Toolbox           |
|  \\    /   O peration     | Version:  v1912                                 |
|   \\  /    A nd           | Website:  www.openfoam.com                      |
|    \\/     M anipulation  |                                                 |
\*---------------------------------------------------------------------------*/
FoamFile
{
    version     2.0;
    format      ascii;
    class       volScalarField;
    location    "0.1";
    object      k;
}
// * * * * * * * * * * * * * * * * * * * * * * * * * * * * * * * * * * * * * //

dimensions      [0 2 -2 0 0 0 0];


internalField   nonuniform List<scalar> 
300
(
0.157723
0.19715
0.202684
0.201032
0.195036
0.187609
0.181997
0.179895
0.179934
0.182667
0.188108
0.190396
0.190649
0.189702
0.184254
0.176973
0.172474
0.170237
0.16953
0.169515
0.170599
0.172784
0.224289
108.639
2774.14
0.105332
0.109157
0.10681
0.107875
0.117821
0.14072
0.158386
0.168031
0.171065
0.170937
0.166932
0.150713
0.133932
0.122845
0.116985
0.115167
0.115244
0.11713
0.124903
0.132898
0.141232
0.140435
0.188906
12.2755
5486.04
0.0514904
0.16335
0.161086
0.126638
0.0319757
0.00378089
0.000391429
6.35971e-05
2.24711e-05
1.03859e-05
5.11569e-06
2.72841e-06
1.76249e-06
1.4609e-06
2.38967e-06
1.20418e-05
5.95008e-05
0.000235785
0.000804658
0.00291654
0.00365385
0.00509325
0.247917
47.2473
6562.94
0.141483
0.150427
0.147199
0.143374
0.140113
0.137883
0.136824
0.135652
0.133157
0.130292
0.12826
0.12741
0.127338
0.127907
0.131444
0.137126
0.140955
0.143195
0.144058
0.143755
0.142144
0.133623
0.179288
12.2664
5485.82
0.154079
0.186492
0.198145
0.203173
0.202885
0.195631
0.181321
0.173777
0.17179
0.17232
0.178052
0.194407
0.206601
0.213576
0.216475
0.216704
0.21554
0.208438
0.196493
0.186845
0.18164
0.177131
0.224092
108.633
2774.06
10375.1
17370.5
22701.1
29148.7
33175.3
32612.1
25299.4
15979.6
9520.77
6514.33
8135.04
10632.2
12846.9
15228.3
16618.4
16455.8
13908.2
10045.4
6838.4
6317.87
13126.2
13205.9
14233.5
15514.7
16200.6
16217.2
15817.2
15040
14983
14921.4
8135.22
10633.7
12848.1
15229.9
16620.7
16457.5
13908.3
10045.3
6838.3
6317.78
10375
17370.4
22700.9
29148.6
33175.6
32612.3
25299.4
15979.6
9520.76
6514.36
3995.43
3491.66
1498.52
1373.02
1324.76
1259.16
1202.45
1138.8
1097.65
1039.96
978.861
921.638
876.534
836.311
804.848
770.962
743.32
712.701
689.625
662.06
640.825
614.291
593.747
561.19
481.371
8353.51
3432.75
522.64
161.164
172.393
196.677
209.47
208.508
204.661
195.627
184.481
174.575
166.621
159.213
153.148
146.81
141.506
135.729
131.089
125.942
121.775
117.196
113.32
108.246
95.7522
11196.9
2643.46
250.814
27.555
4.31768
0.610404
0.109933
0.0252105
0.0049786
0.000682985
0.000102506
6.21812e-05
5.19562e-05
3.398e-05
2.35433e-05
3.2253e-05
6.57323e-05
0.000132903
0.000258508
0.000487949
0.000927746
0.00180457
0.00947348
0.0259123
0.026863
8353.59
3432.82
522.647
161.165
172.394
196.683
209.471
208.507
204.658
195.622
184.477
174.572
166.619
159.212
153.148
146.809
141.505
135.729
131.089
125.943
121.777
117.197
113.32
108.246
95.7521
3995.52
3491.71
1498.49
1373
1324.78
1259.21
1202.49
1138.79
1097.61
1039.92
978.826
921.614
876.518
836.303
804.846
770.959
743.317
712.698
689.623
662.062
640.829
614.29
593.744
561.188
481.372
)
;

boundaryField
{
    inlet
    {
        type            fixedValue;
        value           uniform 2e-05;
    }
    outlet
    {
        type            inletOutlet;
        inletValue      uniform 0;
        value           nonuniform List<scalar> 5(481.371 95.7522 0.026863 95.7521 481.372);
    }
    upInWall
    {
        type            fixedValue;
        value           uniform 0;
    }
    lwInWall
    {
        type            fixedValue;
        value           uniform 0;
    }
    upOtWall
    {
        type            fixedValue;
        value           uniform 0;
    }
    lwOtWall
    {
        type            fixedValue;
        value           uniform 0;
    }
    defaultFaces
    {
        type            empty;
    }
}


// ************************************************************************* //
