/*--------------------------------*- C++ -*----------------------------------*\
| =========                 |                                                 |
| \\      /  F ield         | OpenFOAM: The Open Source CFD Toolbox           |
|  \\    /   O peration     | Version:  v1912                                 |
|   \\  /    A nd           | Website:  www.openfoam.com                      |
|    \\/     M anipulation  |                                                 |
\*---------------------------------------------------------------------------*/
FoamFile
{
    version     2.0;
    format      ascii;
    class       volScalarField;
    location    "0.1";
    object      k_0;
}
// * * * * * * * * * * * * * * * * * * * * * * * * * * * * * * * * * * * * * //

dimensions      [0 2 -2 0 0 0 0];


internalField   nonuniform List<scalar> 
300
(
0.160015
0.199085
0.203017
0.200654
0.194371
0.187019
0.181674
0.179844
0.180013
0.183259
0.188534
0.190569
0.190715
0.189514
0.183484
0.176447
0.172197
0.170146
0.169545
0.169565
0.170858
0.173172
0.22478
108.711
2772.86
0.104211
0.108576
0.106568
0.108178
0.119899
0.14276
0.159754
0.168678
0.171249
0.17092
0.166056
0.148771
0.1326
0.12205
0.116639
0.115088
0.115254
0.117496
0.125786
0.133616
0.141598
0.140649
0.189049
12.2794
5482.37
0.0525619
0.163445
0.160906
0.12628
0.031904
0.00379058
0.000394047
6.44615e-05
2.26077e-05
1.03665e-05
5.09033e-06
2.70811e-06
1.75298e-06
1.45283e-06
2.35391e-06
1.19395e-05
5.95369e-05
0.000238184
0.000813316
0.00293165
0.00365718
0.00508794
0.248051
47.2557
6558.01
0.140212
0.149735
0.14671
0.143031
0.139857
0.137744
0.136738
0.135496
0.132912
0.130078
0.128149
0.127396
0.127365
0.128069
0.13205
0.137599
0.141222
0.143273
0.143994
0.143542
0.141737
0.133223
0.178979
12.2701
5482.07
0.153634
0.186839
0.199037
0.20347
0.202822
0.194269
0.180304
0.173372
0.171747
0.17251
0.179381
0.195979
0.2076
0.214104
0.216665
0.216776
0.215329
0.207307
0.195505
0.186198
0.18125
0.177004
0.224056
108.704
2772.85
10368.5
17500.1
23051.7
29766.5
33885.4
33266.9
25750
16166.5
9556.91
6511.56
8109.49
10622.2
12931.3
15449.3
16908.9
16707.6
14052.4
10073
6816.33
6304.29
13127.9
13200.7
14208.3
15496.3
16193.5
16207.1
15807.1
15037.2
14981.1
14921.5
8108.49
10622.3
12929.1
15445.1
16903.4
16702.4
14050.1
10072.6
6816.18
6304.19
10368.6
17500.4
23052.2
29766.5
33884.9
33266.6
25750
16166.6
9556.89
6511.59
3993.03
3491.44
1497.57
1373.7
1325.33
1258.98
1202.14
1138.9
1098.03
1040.27
979.087
921.855
876.746
836.469
804.838
770.903
743.265
712.7
689.647
662.02
640.722
614.081
593.574
561.032
481.322
8350.73
3427.15
521.113
160.927
172.418
196.711
209.511
208.548
204.693
195.618
184.502
174.634
166.677
159.25
153.158
146.812
141.502
135.723
131.085
125.932
121.769
117.178
113.295
108.218
95.7339
11185.3
2636.03
249.768
27.4101
4.29764
0.60864
0.109277
0.0248371
0.00486222
0.000664572
9.97044e-05
6.06306e-05
5.06274e-05
3.28412e-05
2.23093e-05
3.0536e-05
6.31073e-05
0.000128996
0.000252831
0.000479268
0.000911106
0.00176398
0.00934958
0.0256596
0.0266123
8350.87
3427.24
521.122
160.928
172.42
196.716
209.511
208.546
204.69
195.613
184.498
174.631
166.674
159.249
153.158
146.812
141.502
135.723
131.086
125.933
121.771
117.179
113.295
108.218
95.7338
3993.13
3491.48
1497.53
1373.68
1325.36
1259.04
1202.17
1138.88
1097.99
1040.22
979.052
921.832
876.731
836.461
804.837
770.9
743.262
712.697
689.646
662.023
640.726
614.08
593.571
561.03
481.323
)
;

boundaryField
{
    inlet
    {
        type            fixedValue;
        value           uniform 2e-05;
    }
    outlet
    {
        type            inletOutlet;
        inletValue      uniform 0;
        value           nonuniform List<scalar> 5(481.322 95.7339 0.0266123 95.7338 481.323);
    }
    upInWall
    {
        type            fixedValue;
        value           uniform 0;
    }
    lwInWall
    {
        type            fixedValue;
        value           uniform 0;
    }
    upOtWall
    {
        type            fixedValue;
        value           uniform 0;
    }
    lwOtWall
    {
        type            fixedValue;
        value           uniform 0;
    }
    defaultFaces
    {
        type            empty;
    }
}


// ************************************************************************* //
