/*--------------------------------*- C++ -*----------------------------------*\
| =========                 |                                                 |
| \\      /  F ield         | OpenFOAM: The Open Source CFD Toolbox           |
|  \\    /   O peration     | Version:  v1912                                 |
|   \\  /    A nd           | Website:  www.openfoam.com                      |
|    \\/     M anipulation  |                                                 |
\*---------------------------------------------------------------------------*/
FoamFile
{
    version     2.0;
    format      ascii;
    class       volScalarField;
    location    "0.1";
    object      nut;
}
// * * * * * * * * * * * * * * * * * * * * * * * * * * * * * * * * * * * * * //

dimensions      [0 2 -1 0 0 0 0];


internalField   nonuniform List<scalar> 
300
(
4.98257e-05
3.68223e-07
0
0
0
0
0
0
0
0
0
0
0
1.32184e-08
1.98317e-08
0
0
0
0
0
0
0
0
0
0.0031833
6.02914e-05
8.23581e-06
0
0
0
0
0
0
0
0
0
0
0
1.23851e-08
1.93952e-08
7.29482e-10
0
0
0
0
0
2.11196e-06
2.46505e-05
0
0
4.55731e-05
6.10141e-05
0
0
0
0
0
0
0
0
0
0
0
4.82533e-11
1.0296e-10
7.30576e-11
0
0
0
0
0
5.48683e-06
3.82009e-05
9.91898e-05
0
6.90832e-05
1.31454e-05
0
0
0
0
0
0
0
0
0
0
0
1.28111e-08
2.06143e-08
7.53835e-10
0
0
0
0
0
2.06011e-06
2.40149e-05
0
0
5.04426e-05
1.98858e-06
0
0
0
0
0
0
0
0
0
0
0
1.42487e-08
2.15714e-08
0
0
0
0
0
0
0
0
0
0.00318324
0.0293452
0.0555319
0.061322
0.0640295
0.0613069
0.053661
0.0462364
0.039096
0.0289541
0.0132327
0
0
0
0
0
0
0
0
0
0
0
0
0
0
0
0
0
0
0
0
0
0
0
0
0
0
0
0
0
0
0.0293451
0.0555318
0.0613217
0.0640294
0.0613071
0.0536611
0.0462364
0.039096
0.0289541
0.0132327
0.000846716
0
0
0
0
0
0
0
0
3.84206e-06
4.61056e-06
3.65493e-06
2.26548e-06
9.45702e-07
0
0
0
0
0
0
0
0
0
1.69221e-05
2.28136e-05
0
0
0.00117634
9.34638e-05
0
0
0
0
0
1.89322e-06
2.09827e-06
1.61608e-06
9.84811e-07
4.02371e-07
0
0
0
0
0
0
0
0
0
8.52636e-06
1.06334e-05
0
0.00115357
0.00151565
0.000391441
2.26753e-07
0
0
0
1.73425e-09
3.95487e-09
1.63079e-09
9.76379e-10
5.46466e-10
1.79793e-10
0
0
0
0
0
0
0
0
0
1.69746e-07
1.93141e-07
0
0
0.00117634
9.34585e-05
0
0
0
0
0
1.89049e-06
2.09589e-06
1.61407e-06
9.83147e-07
4.01025e-07
0
0
0
0
0
0
0
0
0
8.52611e-06
1.06333e-05
0.000846707
0
0
0
0
0
0
0
0
3.83574e-06
4.60505e-06
3.6503e-06
2.26166e-06
9.42603e-07
0
0
0
0
0
0
0
0
0
1.69215e-05
2.28133e-05
)
;

boundaryField
{
    inlet
    {
        type            zeroGradient;
    }
    outlet
    {
        type            zeroGradient;
    }
    upInWall
    {
        type            zeroGradient;
    }
    lwInWall
    {
        type            zeroGradient;
    }
    upOtWall
    {
        type            zeroGradient;
    }
    lwOtWall
    {
        type            zeroGradient;
    }
    defaultFaces
    {
        type            empty;
    }
}


// ************************************************************************* //
