/*--------------------------------*- C++ -*----------------------------------*\
| =========                 |                                                 |
| \\      /  F ield         | OpenFOAM: The Open Source CFD Toolbox           |
|  \\    /   O peration     | Version:  v1912                                 |
|   \\  /    A nd           | Website:  www.openfoam.com                      |
|    \\/     M anipulation  |                                                 |
\*---------------------------------------------------------------------------*/
FoamFile
{
    version     2.0;
    format      ascii;
    class       volScalarField;
    location    "0.1";
    object      p;
}
// * * * * * * * * * * * * * * * * * * * * * * * * * * * * * * * * * * * * * //

dimensions      [0 2 -2 0 0 0 0];


internalField   nonuniform List<scalar> 
300
(
112156
110988
109635
108210
106748
105266
103771
102267
100758
99245.5
97730.1
96212.7
94694.2
93174.9
91655.7
90137.1
88620.3
87105.8
85594.2
84084.6
82572
81033.6
79387.3
77382.2
74745.8
112179
110998
109639
108212
106749
105266
103771
102267
100758
99245.7
97730.4
96213.3
94694.9
93175.7
91655.9
90135.6
88615.1
87094.5
85574.2
84055.6
82542.7
81049
79618
78385
77718.2
112198
111009
109645
108214
106750
105266
103771
102267
100758
99245.8
97730.6
96213.7
94695.4
93176.1
91655.8
90134.5
88612.1
87088.6
85564.6
84043
82534.7
81074.6
79756.9
78827.8
78790.7
112218
111018
109650
108216
106751
105267
103771
102267
100758
99245.6
97730.4
96213.3
94694.9
93175.7
91655.9
90135.6
88615.1
87094.5
85574.2
84055.6
82542.7
81049
79618
78385
77718.2
112206
111018
109652
108218
106752
105267
103771
102267
100758
99245.4
97730
96212.7
94694.1
93174.9
91655.6
90137.1
88620.3
87105.8
85594.2
84084.6
82572
81033.6
79387.3
77382.2
74745.8
75659.1
88629.9
95380.5
97908.1
95286.5
87519
75715.3
63072.1
51271.6
39077.6
79655.7
85624.4
91693.5
94900
93075.6
85699.5
74274
61980.8
51219.8
43192.9
80988.9
85648.1
90996.7
94221.1
92516.5
85280.5
74042.3
62104.4
51876
44569.4
79655.7
85624.4
91693.5
94900
93075.6
85699.5
74274
61980.7
51219.8
43192.9
75659.1
88629.9
95380.4
97908.1
95286.5
87518.9
75715.3
63072
51271.6
39077.6
36441.7
35711.6
34448.9
32975.8
31443.6
29900.5
28359.2
26821.8
25288.3
23757.9
22229.6
20702.5
19176
17649.8
16123.5
14596.9
13069.9
11542.1
10013.2
8482.99
6950.78
5415.87
3877.2
2333.1
780.926
38780.9
36352.6
34565.3
32958.8
31407.4
29872.1
28341.6
26812.9
25284.9
23757.4
22230.2
20703.4
19176.8
17650.4
16123.8
14597.1
13069.9
11542.1
10013.2
8482.95
6950.74
5415.82
3877.14
2333.04
780.895
39724.6
36671.8
34643.4
32963.5
31394.9
29859.9
28333.3
26808.2
25282.8
23756.8
22230.5
20703.9
19177.3
17650.7
16124.1
14597.2
13070
11542.1
10013.2
8482.93
6950.71
5415.79
3877.1
2333.01
780.881
38780.9
36352.6
34565.3
32958.8
31407.4
29872.1
28341.6
26812.9
25284.9
23757.4
22230.2
20703.4
19176.8
17650.4
16123.9
14597.1
13069.9
11542.1
10013.2
8482.95
6950.74
5415.82
3877.14
2333.04
780.895
36441.7
35711.6
34448.9
32975.8
31443.6
29900.5
28359.2
26821.8
25288.3
23757.9
22229.6
20702.5
19176
17649.8
16123.5
14596.9
13069.9
11542.1
10013.2
8482.99
6950.78
5415.87
3877.2
2333.1
780.927
)
;

boundaryField
{
    inlet
    {
        type            zeroGradient;
    }
    outlet
    {
        type            fixedValue;
        value           uniform 0;
    }
    upInWall
    {
        type            zeroGradient;
    }
    lwInWall
    {
        type            zeroGradient;
    }
    upOtWall
    {
        type            zeroGradient;
    }
    lwOtWall
    {
        type            zeroGradient;
    }
    defaultFaces
    {
        type            empty;
    }
}


// ************************************************************************* //
