/*--------------------------------*- C++ -*----------------------------------*\
| =========                 |                                                 |
| \\      /  F ield         | OpenFOAM: The Open Source CFD Toolbox           |
|  \\    /   O peration     | Version:  v1912                                 |
|   \\  /    A nd           | Website:  www.openfoam.com                      |
|    \\/     M anipulation  |                                                 |
\*---------------------------------------------------------------------------*/
FoamFile
{
    version     2.0;
    format      ascii;
    class       surfaceScalarField;
    location    "0.1";
    object      phi;
}
// * * * * * * * * * * * * * * * * * * * * * * * * * * * * * * * * * * * * * //

dimensions      [0 3 -1 0 0 0 0];
oriented        oriented;


internalField   nonuniform List<scalar> 
535
(
9.85173e-06
-1.79488e-07
9.93307e-06
-8.13165e-08
9.9685e-06
-3.54034e-08
9.98219e-06
-1.36664e-08
9.98699e-06
-4.77404e-09
9.98845e-06
-1.44321e-09
9.98876e-06
-2.94035e-10
9.98886e-06
-9.27066e-11
9.98938e-06
-5.13896e-10
9.99087e-06
-1.48947e-09
9.99396e-06
-3.08982e-09
9.9991e-06
-5.14027e-09
1.0006e-05
-6.94566e-09
1.00129e-05
-6.8557e-09
1.00146e-05
-1.74408e-09
1.00014e-05
1.31929e-08
9.95688e-06
4.45351e-08
9.85895e-06
9.79317e-08
9.68614e-06
1.72822e-07
9.43453e-06
2.51633e-07
9.18257e-06
2.52e-07
9.30995e-06
-1.27336e-07
1.13122e-05
-2.00223e-06
1.98367e-05
-8.52441e-06
-2.22534e-05
4.20902e-05
9.94979e-06
-1.43283e-07
9.96477e-06
-9.62694e-08
9.97871e-06
-4.93146e-08
9.98604e-06
-2.09655e-08
9.98891e-06
-7.62202e-09
9.98964e-06
-2.14655e-09
9.98978e-06
-4.23717e-10
9.98985e-06
-1.46147e-10
9.98973e-06
-3.91176e-10
9.98926e-06
-1.01574e-09
9.98819e-06
-2.01937e-09
9.98626e-06
-3.21142e-09
9.98336e-06
-4.05284e-09
9.97992e-06
-3.4216e-09
9.97791e-06
2.54072e-10
9.98174e-06
9.35866e-09
1.00003e-05
2.5944e-08
1.00471e-05
5.12171e-08
1.01368e-05
8.31216e-08
1.0282e-05
1.06441e-07
1.04913e-05
4.27248e-08
1.05782e-05
-2.14139e-07
9.78135e-06
-1.20534e-06
5.01636e-06
-3.75935e-06
-8.21991e-06
-9.01703e-06
1.0011e-05
-1.84628e-07
1.00001e-05
-8.52603e-08
9.98978e-06
-3.90058e-08
9.98739e-06
-1.8544e-08
9.98814e-06
-8.34618e-09
9.98944e-06
-3.426e-09
9.99024e-06
-1.19693e-09
9.99031e-06
-2.09001e-10
9.98946e-06
4.6865e-10
9.98734e-06
1.11391e-09
9.98314e-06
2.17817e-09
9.97654e-06
3.38641e-09
9.96827e-06
4.21563e-09
9.96129e-06
3.54782e-09
9.96173e-06
-1.89197e-10
9.98041e-06
-9.32019e-09
1.00323e-05
-2.59396e-08
1.01348e-05
-5.12274e-08
1.0301e-05
-8.31322e-08
1.0514e-05
-1.06443e-07
1.05994e-05
-4.27238e-08
1.01712e-05
2.14151e-07
7.76061e-06
1.20533e-06
2.42037e-07
3.75931e-06
8.21987e-06
-1.61976e-05
1.01062e-05
7.26937e-08
1.00187e-05
2.30635e-09
9.99506e-06
-1.53585e-08
9.99018e-06
-1.36376e-08
9.98934e-06
-7.47556e-09
9.98955e-06
-3.61833e-09
9.98982e-06
-1.43999e-09
9.98982e-06
-1.92066e-10
9.98965e-06
6.41701e-10
9.98907e-06
1.70626e-09
9.98798e-06
3.26901e-09
9.98609e-06
5.27858e-09
9.98325e-06
7.0486e-09
9.97987e-06
6.92558e-09
9.9779e-06
1.78697e-09
9.98175e-06
-1.31739e-08
1.00004e-05
-4.45303e-08
1.00471e-05
-9.79354e-08
1.01368e-05
-1.72829e-07
1.0282e-05
-2.51638e-07
1.04914e-05
-2.52004e-07
1.05782e-05
1.27327e-07
9.7814e-06
2.00225e-06
5.01639e-06
8.52441e-06
2.22533e-05
-9.01697e-06
1.00273e-05
1.00296e-05
1.00142e-05
1.00006e-05
9.99316e-06
9.98955e-06
9.98812e-06
9.98794e-06
9.98858e-06
9.99029e-06
9.99356e-06
9.99884e-06
1.00059e-05
1.00128e-05
1.00146e-05
1.00014e-05
9.95691e-06
9.85898e-06
9.68617e-06
9.43455e-06
9.18257e-06
9.30993e-06
1.13122e-05
1.98367e-05
4.20901e-05
6.99548e-05
-2.78645e-05
5.59309e-05
1.40239e-05
3.73447e-05
1.85862e-05
2.06839e-05
1.66608e-05
6.81425e-06
1.38697e-05
-6.71981e-06
1.35341e-05
-1.93119e-05
1.25921e-05
-3.04751e-05
1.11632e-05
-3.62135e-05
5.73842e-06
-2.18368e-05
-1.43767e-05
-2.97991e-05
-7.08237e-06
-1.8226e-05
2.45086e-06
-6.22436e-06
6.58472e-06
2.1476e-06
8.289e-06
8.57399e-06
7.44328e-06
1.62218e-05
5.88643e-06
2.50305e-05
3.78326e-06
3.38843e-05
2.30945e-06
4.03789e-05
-7.56144e-07
-5.36463e-06
2.39066e-05
-3.03622e-05
7.08228e-06
-2.54604e-05
-2.45083e-06
-1.2291e-05
-6.58459e-06
4.28693e-06
-8.28881e-06
1.91735e-05
-7.44324e-06
3.09463e-05
-5.88636e-06
3.85128e-05
-3.78324e-06
4.31317e-05
-2.30941e-06
4.16194e-05
7.56177e-07
5.3646e-06
3.08901e-05
-2.97989e-05
2.78643e-05
-1.82258e-05
-1.40238e-05
-6.22434e-06
-1.8586e-05
2.14758e-06
-1.66607e-05
8.57402e-06
-1.38697e-05
1.62218e-05
-1.35341e-05
2.50306e-05
-1.2592e-05
3.38843e-05
-1.11631e-05
4.03788e-05
-5.73834e-06
2.18368e-05
2.39066e-05
6.99544e-05
5.59306e-05
3.73446e-05
2.06839e-05
6.81427e-06
-6.71982e-06
-1.93119e-05
-3.0475e-05
-3.62133e-05
-1.43766e-05
4.41838e-06
-1.87951e-05
9.92277e-06
-5.50445e-06
1.09202e-05
-9.97523e-07
1.07808e-05
1.39408e-07
1.04684e-05
3.12332e-07
1.02217e-05
2.46564e-07
1.00696e-05
1.52093e-07
9.99238e-06
7.7179e-08
9.96277e-06
2.95632e-08
9.95826e-06
4.46321e-09
9.96413e-06
-5.90077e-09
9.97247e-06
-8.37803e-09
9.97973e-06
-7.28119e-09
9.9848e-06
-5.09698e-09
9.9878e-06
-3.0153e-09
9.98926e-06
-1.47372e-09
9.98976e-06
-5.14412e-10
9.98975e-06
-8.8157e-12
9.98954e-06
2.03779e-10
9.98924e-06
2.85426e-10
9.98889e-06
3.44394e-10
9.98845e-06
4.36154e-10
9.9879e-06
5.43867e-10
9.98736e-06
5.38712e-10
2.64294e-10
1.25195e-05
-7.408e-06
9.68481e-06
-2.66984e-06
9.34301e-06
-6.55794e-07
9.51265e-06
-3.03035e-08
9.73191e-06
9.30099e-08
9.87546e-06
1.02956e-07
9.95614e-06
7.13597e-08
9.99267e-06
4.05928e-08
1.00039e-05
1.82563e-08
1.00038e-05
4.54579e-09
9.99976e-06
-1.89482e-09
9.99576e-06
-4.40833e-09
9.99278e-06
-4.3306e-09
9.9909e-06
-3.24698e-09
9.98988e-06
-2.01367e-09
9.98942e-06
-1.02373e-09
9.98927e-06
-3.79388e-10
9.98927e-06
-2.81956e-11
9.98934e-06
1.2461e-10
9.98943e-06
1.8266e-10
9.98955e-06
2.13364e-10
9.98973e-06
2.53599e-10
9.98998e-06
2.89421e-10
9.99025e-06
2.62186e-10
1.17859e-10
1.60741e-05
7.40799e-06
1.07344e-05
2.6698e-06
9.42274e-06
6.55758e-07
9.3621e-06
3.02692e-08
9.54809e-06
-9.30419e-08
9.75397e-06
-1.02986e-07
9.89666e-06
-7.13861e-08
9.97782e-06
-4.06172e-08
1.00143e-05
-1.8279e-08
1.00234e-05
-4.56673e-09
1.00196e-05
1.87574e-09
1.00107e-05
4.39161e-09
1.00021e-05
4.31594e-09
9.99555e-06
3.23426e-09
9.99151e-06
2.00307e-09
9.98946e-06
1.015e-09
9.98869e-06
3.72373e-10
9.98863e-06
2.03924e-11
9.98887e-06
-1.28984e-10
9.98923e-06
-1.86595e-10
9.98965e-06
-2.16768e-10
9.99015e-06
-2.56542e-10
9.99073e-06
-2.91582e-10
9.99125e-06
-2.63542e-10
-1.18348e-10
1.25195e-05
1.8795e-05
9.6848e-06
5.50439e-06
9.34301e-06
9.97484e-07
9.51266e-06
-1.39443e-07
9.73191e-06
-3.12363e-07
9.87546e-06
-2.46592e-07
9.95614e-06
-1.52119e-07
9.99267e-06
-7.72033e-08
1.00039e-05
-2.95855e-08
1.00038e-05
-4.48367e-09
9.99976e-06
5.88199e-09
9.99576e-06
8.36155e-09
9.99278e-06
7.2668e-09
9.99091e-06
5.08451e-09
9.98989e-06
3.00458e-09
9.98942e-06
1.46463e-09
9.98927e-06
5.0655e-10
9.98927e-06
3.82846e-12
9.98934e-06
-2.09445e-10
9.98943e-06
-2.90183e-10
9.98956e-06
-3.48394e-10
9.98973e-06
-4.39511e-10
9.98998e-06
-5.46349e-10
9.99025e-06
-5.40706e-10
-2.64909e-10
4.41844e-06
9.92279e-06
1.09202e-05
1.07808e-05
1.04684e-05
1.02218e-05
1.00696e-05
9.99238e-06
9.96277e-06
9.95827e-06
9.96413e-06
9.97248e-06
9.97973e-06
9.98481e-06
9.9878e-06
9.98926e-06
9.98976e-06
9.98975e-06
9.98954e-06
9.98924e-06
9.98889e-06
9.98845e-06
9.9879e-06
9.98736e-06
)
;

boundaryField
{
    inlet
    {
        type            calculated;
        value           nonuniform List<scalar> 5(-9.67222e-06 -9.98597e-06 -9.96966e-06 -1.03635e-05 -9.95455e-06);
    }
    outlet
    {
        type            calculated;
        value           nonuniform List<scalar> 5(9.98709e-06 9.9904e-06 9.99149e-06 9.9904e-06 9.98709e-06);
    }
    upInWall
    {
        type            calculated;
        value           uniform 0;
    }
    lwInWall
    {
        type            calculated;
        value           uniform 0;
    }
    upOtWall
    {
        type            calculated;
        value           uniform 0;
    }
    lwOtWall
    {
        type            calculated;
        value           uniform 0;
    }
    defaultFaces
    {
        type            empty;
        value           nonuniform 0();
    }
}


// ************************************************************************* //
