/*--------------------------------*- C++ -*----------------------------------*\
| =========                 |                                                 |
| \\      /  F ield         | OpenFOAM: The Open Source CFD Toolbox           |
|  \\    /   O peration     | Version:  v1912                                 |
|   \\  /    A nd           | Website:  www.openfoam.com                      |
|    \\/     M anipulation  |                                                 |
\*---------------------------------------------------------------------------*/
FoamFile
{
    version     2.0;
    format      ascii;
    class       surfaceScalarField;
    location    "0.1";
    object      phi_0;
}
// * * * * * * * * * * * * * * * * * * * * * * * * * * * * * * * * * * * * * //

dimensions      [0 3 -1 0 0 0 0];
oriented        oriented;


internalField   nonuniform List<scalar> 
535
(
9.89897e-06
-1.24415e-07
9.96982e-06
-7.08223e-08
1.00028e-05
-3.29886e-08
1.00165e-05
-1.36842e-08
1.00223e-05
-5.75297e-09
1.00247e-05
-2.35824e-09
1.00257e-05
-9.51803e-10
1.00262e-05
-5.12163e-10
1.0027e-05
-7.89889e-10
1.00287e-05
-1.65917e-09
1.00319e-05
-3.17873e-09
1.00371e-05
-5.18229e-09
1.00441e-05
-6.96555e-09
1.0051e-05
-6.86662e-09
1.00528e-05
-1.75702e-09
1.00396e-05
1.316e-08
9.9952e-06
4.44504e-08
9.89749e-06
9.7733e-08
9.72518e-06
1.72334e-07
9.4749e-06
2.50304e-07
9.22625e-06
2.48671e-07
9.36016e-06
-1.33882e-07
1.13727e-05
-2.01254e-06
1.99025e-05
-8.52975e-06
-2.23057e-05
4.22083e-05
9.95714e-06
-1.61068e-07
9.99149e-06
-1.05141e-07
1.00111e-05
-5.25613e-08
1.0021e-05
-2.35393e-08
1.0025e-05
-9.78236e-09
1.00264e-05
-3.71225e-09
1.0027e-05
-1.52007e-09
1.00274e-05
-8.77036e-10
1.00275e-05
-8.45318e-10
1.00272e-05
-1.31027e-09
1.00262e-05
-2.16749e-09
1.00243e-05
-3.27865e-09
1.00214e-05
-4.08083e-09
1.0018e-05
-3.43217e-09
1.0016e-05
2.50735e-10
1.00199e-05
9.34099e-09
1.00385e-05
2.58986e-08
1.00851e-05
5.11088e-08
1.01746e-05
8.28607e-08
1.03192e-05
1.05732e-07
1.0527e-05
4.09015e-08
1.06097e-05
-2.16546e-07
9.80525e-06
-1.20807e-06
5.03435e-06
-3.75882e-06
-8.24705e-06
-9.02434e-06
1.00229e-05
-2.33213e-07
1.00263e-05
-1.08473e-07
1.00231e-05
-4.9388e-08
1.00237e-05
-2.40494e-08
1.00255e-05
-1.1573e-08
1.00272e-05
-5.41716e-09
1.00282e-05
-2.42901e-09
1.00283e-05
-9.72807e-10
1.00274e-05
5.86378e-11
1.00253e-05
7.92559e-10
1.00212e-05
2.02783e-09
1.00146e-05
3.3177e-09
1.00063e-05
4.19214e-09
9.99939e-06
3.54582e-09
9.99984e-06
-1.7289e-10
1.00185e-05
-9.29472e-09
1.00703e-05
-2.588e-08
1.01725e-05
-5.11028e-08
1.03383e-05
-8.28548e-08
1.05498e-05
-1.05718e-07
1.06316e-05
-4.08761e-08
1.01985e-05
2.16564e-07
7.78237e-06
1.20808e-06
2.64758e-07
3.75881e-06
8.24706e-06
-1.62293e-05
1.01446e-05
-3.10715e-09
1.00616e-05
-2.54395e-08
1.00364e-05
-2.40875e-08
1.00302e-05
-1.7843e-08
1.00288e-05
-1.01145e-08
1.00286e-05
-5.18387e-09
1.00285e-05
-2.29947e-09
1.00282e-05
-6.53261e-10
1.00279e-05
3.64679e-10
1.00272e-05
1.52067e-09
1.00261e-05
3.17817e-09
1.00242e-05
5.2416e-09
1.00213e-05
7.04082e-09
1.0018e-05
6.93433e-09
1.0016e-05
1.80816e-09
1.00199e-05
-1.31291e-08
1.00385e-05
-4.44329e-08
1.00851e-05
-9.77234e-08
1.01746e-05
-1.72328e-07
1.03192e-05
-2.50298e-07
1.0527e-05
-2.48666e-07
1.06098e-05
1.3388e-07
9.80531e-06
2.01256e-06
5.03437e-06
8.52977e-06
2.23058e-05
-9.0243e-06
1.01121e-05
1.00867e-05
1.00626e-05
1.00448e-05
1.00347e-05
1.00295e-05
1.00272e-05
1.00266e-05
1.0027e-05
1.00285e-05
1.00317e-05
1.00369e-05
1.0044e-05
1.00509e-05
1.00528e-05
1.00396e-05
9.99522e-06
9.89752e-06
9.7252e-06
9.47492e-06
9.22627e-06
9.36016e-06
1.13727e-05
1.99025e-05
4.22083e-05
7.02805e-05
-2.80722e-05
5.62526e-05
1.40279e-05
3.75649e-05
1.86876e-05
2.07989e-05
1.67661e-05
6.85947e-06
1.39394e-05
-6.70565e-06
1.35651e-05
-1.93676e-05
1.26619e-05
-3.05791e-05
1.12115e-05
-3.62754e-05
5.69624e-06
-2.19092e-05
-1.43662e-05
-2.99707e-05
-7.12579e-06
-1.83859e-05
2.44307e-06
-6.30887e-06
6.61064e-06
2.14267e-06
8.31458e-06
8.61783e-06
7.46417e-06
1.62919e-05
5.89108e-06
2.51482e-05
3.8055e-06
3.40328e-05
2.32689e-06
4.04943e-05
-7.65308e-07
-5.37671e-06
2.39618e-05
-3.0481e-05
7.12588e-06
-2.55949e-05
-2.44301e-06
-1.23735e-05
-6.61072e-06
4.25572e-06
-8.31463e-06
1.91841e-05
-7.46422e-06
3.09662e-05
-5.89108e-06
3.85772e-05
-3.80553e-06
4.32309e-05
-2.3269e-06
4.17004e-05
7.65232e-07
5.37669e-06
3.09469e-05
-2.99707e-05
2.80723e-05
-1.83859e-05
-1.40279e-05
-6.3089e-06
-1.86877e-05
2.14266e-06
-1.67662e-05
8.61783e-06
-1.39394e-05
1.62919e-05
-1.35652e-05
2.51483e-05
-1.26619e-05
3.40329e-05
-1.12116e-05
4.04944e-05
-5.69628e-06
2.19092e-05
2.39618e-05
7.02806e-05
5.62528e-05
3.75651e-05
2.07989e-05
6.85947e-06
-6.70571e-06
-1.93677e-05
-3.05792e-05
-3.62755e-05
-1.43663e-05
4.42943e-06
-1.87957e-05
9.94316e-06
-5.51377e-06
1.09495e-05
-1.00633e-06
1.08148e-05
1.34599e-07
1.05047e-05
3.10103e-07
1.02589e-05
2.45737e-07
1.01071e-05
1.51786e-07
1.003e-05
7.70555e-08
1.00005e-05
2.95165e-08
9.99601e-06
4.4507e-09
1.00019e-05
-5.90306e-09
1.00102e-05
-8.37746e-09
1.00175e-05
-7.28059e-09
1.00226e-05
-5.09453e-09
1.00256e-05
-3.01276e-09
1.0027e-05
-1.47079e-09
1.00275e-05
-5.12792e-10
1.00275e-05
-6.17496e-12
1.00273e-05
2.04348e-10
1.0027e-05
2.86934e-10
1.00267e-05
3.45522e-10
1.00262e-05
4.39347e-10
1.00257e-05
5.50944e-10
1.00251e-05
5.45906e-10
2.65851e-10
1.25764e-05
-7.41035e-06
9.73307e-06
-2.67044e-06
9.38499e-06
-6.58295e-07
9.55199e-06
-3.24423e-08
9.77018e-06
9.18771e-08
9.91339e-06
1.02495e-07
9.99395e-06
7.11973e-08
1.00304e-05
4.05314e-08
1.00417e-05
1.82354e-08
1.00416e-05
4.54358e-09
1.00375e-05
-1.88995e-09
1.00335e-05
-4.40374e-09
1.00306e-05
-4.3258e-09
1.00287e-05
-3.24275e-09
1.00277e-05
-2.00907e-09
1.00272e-05
-1.0207e-09
1.0027e-05
-3.76314e-10
1.0027e-05
-2.46531e-11
1.00271e-05
1.26305e-10
1.00272e-05
1.8354e-10
1.00273e-05
2.1536e-10
1.00275e-05
2.55607e-10
1.00278e-05
2.94375e-10
1.00281e-05
2.65683e-10
1.18534e-10
1.61261e-05
7.41038e-06
1.07852e-05
2.67047e-06
9.46853e-06
6.58306e-07
9.4036e-06
3.24501e-08
9.58731e-06
-9.1875e-08
9.79226e-06
-1.02495e-07
9.93463e-06
-7.11985e-08
1.00157e-05
-4.05325e-08
1.00521e-05
-1.82365e-08
1.00612e-05
-4.54402e-09
1.00574e-05
1.88785e-09
1.00485e-05
4.40203e-09
1.00398e-05
4.32403e-09
1.00333e-05
3.24101e-09
1.00293e-05
2.00688e-09
1.00272e-05
1.018e-09
1.00265e-05
3.73372e-10
1.00264e-05
2.42781e-11
1.00266e-05
-1.28838e-10
1.0027e-05
-1.85274e-10
1.00274e-05
-2.16481e-10
1.00279e-05
-2.56189e-10
1.00285e-05
-2.94942e-10
1.00291e-05
-2.66205e-10
-1.18702e-10
1.25764e-05
1.87957e-05
9.73306e-06
5.5138e-06
9.38498e-06
1.00634e-06
9.55198e-06
-1.34603e-07
9.77018e-06
-3.10109e-07
9.91339e-06
-2.45744e-07
9.99395e-06
-1.51793e-07
1.00304e-05
-7.70625e-08
1.00417e-05
-2.95232e-08
1.00416e-05
-4.4571e-09
1.00375e-05
5.89643e-09
1.00335e-05
8.37115e-09
1.00306e-05
7.27442e-09
1.00287e-05
5.08853e-09
1.00277e-05
3.00686e-09
1.00272e-05
1.46475e-09
1.0027e-05
5.06765e-10
1.0027e-05
4.13122e-12
1.00271e-05
-2.08771e-10
1.00272e-05
-2.89933e-10
1.00273e-05
-3.47389e-10
1.00275e-05
-4.40345e-10
1.00278e-05
-5.51497e-10
1.00281e-05
-5.45748e-10
-2.65825e-10
4.42934e-06
9.94312e-06
1.09494e-05
1.08148e-05
1.05047e-05
1.02589e-05
1.01071e-05
1.003e-05
1.00005e-05
9.99601e-06
1.00019e-05
1.00102e-05
1.00175e-05
1.00226e-05
1.00256e-05
1.0027e-05
1.00275e-05
1.00275e-05
1.00273e-05
1.0027e-05
1.00267e-05
1.00262e-05
1.00257e-05
1.00251e-05
)
;

boundaryField
{
    inlet
    {
        type            calculated;
        value           nonuniform List<scalar> 5(-9.77454e-06 -9.92046e-06 -9.95074e-06 -1.03747e-05 -1.01152e-05);
    }
    outlet
    {
        type            calculated;
        value           nonuniform List<scalar> 5(1.00249e-05 1.00282e-05 1.00293e-05 1.00282e-05 1.00249e-05);
    }
    upInWall
    {
        type            calculated;
        value           uniform 0;
    }
    lwInWall
    {
        type            calculated;
        value           uniform 0;
    }
    upOtWall
    {
        type            calculated;
        value           uniform 0;
    }
    lwOtWall
    {
        type            calculated;
        value           uniform 0;
    }
    defaultFaces
    {
        type            empty;
        value           nonuniform 0();
    }
}


// ************************************************************************* //
