/*--------------------------------*- C++ -*----------------------------------*\
| =========                 |                                                 |
| \\      /  F ield         | OpenFOAM: The Open Source CFD Toolbox           |
|  \\    /   O peration     | Version:  v1912                                 |
|   \\  /    A nd           | Website:  www.openfoam.com                      |
|    \\/     M anipulation  |                                                 |
\*---------------------------------------------------------------------------*/
FoamFile
{
    version     2.0;
    format      ascii;
    class       volVectorField;
    location    "0.1";
    object      U;
}
// * * * * * * * * * * * * * * * * * * * * * * * * * * * * * * * * * * * * * //

dimensions      [0 1 -1 0 0 0 0];


internalField   nonuniform List<vector> 
300
(
(3.73309 -0.0753349 0)
(8.26114 -0.0328349 0)
(9.10315 -0.0141587 0)
(9.4608 -0.00546331 0)
(9.64983 -0.00181921 0)
(9.75969 -0.00048071 0)
(9.8281 -4.48328e-05 0)
(9.87297 1.548e-05 0)
(9.9035 -0.000158732 0)
(9.92478 -0.00054045 0)
(9.93973 -0.00115433 0)
(9.94993 -0.00193353 0)
(9.95607 -0.00261754 0)
(9.95816 -0.00258674 0)
(9.95576 -0.00067504 0)
(9.94804 0.00497981 0)
(9.93495 0.0168087 0)
(9.91847 0.0369875 0)
(9.90389 0.0653405 0)
(9.9098 0.0953356 0)
(10.0087 0.0961729 0)
(10.4493 -0.0504846 0)
(11.9401 -0.754351 0)
(14.8174 -3.2013 0)
(4.44261 -7.93243 0)
(3.7747 -0.136179 0)
(8.32109 -0.0702364 0)
(9.13029 -0.0332358 0)
(9.47348 -0.0134789 0)
(9.65531 -0.00468747 0)
(9.76204 -0.00127378 0)
(9.82921 -0.000135214 0)
(9.87348 4.84924e-05 0)
(9.90357 -0.000250914 0)
(9.92443 -0.000892005 0)
(9.93903 -0.0019009 0)
(9.94925 -0.00313807 0)
(9.95632 -0.00414312 0)
(9.96118 -0.00388192 0)
(9.96454 -0.000548089 0)
(9.96656 0.0085203 0)
(9.9672 0.0266 0)
(9.96534 0.0563728 0)
(9.95699 0.0969692 0)
(9.92983 0.136497 0)
(9.84578 0.122389 0)
(9.57394 -0.134118 0)
(8.70234 -1.20751 0)
(6.18845 -4.70906 0)
(-4.42922 -12.8465 0)
(3.79834 -0.122475 0)
(8.35923 -0.0666589 0)
(9.15766 -0.0336328 0)
(9.4895 -0.0149244 0)
(9.66246 -0.00585759 0)
(9.76478 -0.00191602 0)
(9.83001 -0.000404076 0)
(9.87346 5.02612e-05 0)
(9.90318 0.000142153 0)
(9.9238 0.000108524 0)
(9.93824 9.23515e-05 0)
(9.9486 8.03778e-05 0)
(9.95646 6.71873e-05 0)
(9.96314 5.07633e-05 0)
(9.96968 3.24379e-05 0)
(9.9764 1.20942e-05 0)
(9.98296 -4.89914e-07 0)
(9.98663 -5.84964e-06 0)
(9.97756 -5.65852e-06 0)
(9.92254 -1.92759e-06 0)
(9.71962 2.93073e-06 0)
(9.09359 6.59644e-07 0)
(7.35486 -7.04899e-06 0)
(3.17432 -1.28719e-05 0)
(-7.44381 -1.30143e-05 0)
(3.82539 -0.0251839 0)
(8.41073 -0.0309066 0)
(9.18131 -0.0212865 0)
(9.50096 -0.0116023 0)
(9.66817 -0.00545834 0)
(9.76741 -0.00227405 0)
(9.83113 -0.000739414 0)
(9.874 3.38766e-06 0)
(9.90363 0.000508451 0)
(9.92438 0.00112471 0)
(9.93901 0.00208193 0)
(9.94922 0.00327905 0)
(9.95629 0.00425114 0)
(9.96115 0.00395773 0)
(9.96451 0.000592146 0)
(9.96653 -0.00850316 0)
(9.96719 -0.026601 0)
(9.96534 -0.0563824 0)
(9.95699 -0.0969794 0)
(9.92984 -0.136503 0)
(9.84578 -0.12239 0)
(9.57396 0.134117 0)
(8.7024 1.20751 0)
(6.18845 4.70905 0)
(-4.42924 12.8465 0)
(3.79134 0.0363654 0)
(8.36974 -0.0016288 0)
(9.17795 -0.0067247 0)
(9.50446 -0.0046928 0)
(9.67101 -0.00246873 0)
(9.7688 -0.001151 0)
(9.83164 -0.00042569 0)
(9.87409 -1.38613e-05 0)
(9.90368 0.000274108 0)
(9.92471 0.000664624 0)
(9.93964 0.001243 0)
(9.94986 0.00199413 0)
(9.956 0.00265838 0)
(9.95809 0.00261178 0)
(9.9557 0.000686659 0)
(9.94799 -0.00497476 0)
(9.93492 -0.0168093 0)
(9.91846 -0.0369911 0)
(9.9039 -0.065345 0)
(9.90981 -0.0953394 0)
(10.0087 -0.0961768 0)
(10.4493 0.050483 0)
(11.9401 0.75435 0)
(14.8174 3.20129 0)
(4.44261 7.9324 0)
(167.591 -339.133 0)
(127.429 -363.67 0)
(116.293 -424.572 0)
(84.4347 -476.426 0)
(40.2563 -504.628 -7.90144e-16)
(-7.37776 -507.176 -7.94135e-16)
(-48.0891 -456.565 0)
(-71.6903 -370.045 0)
(-75.9808 -289.803 0)
(-92.7883 -228.774 0)
(-17.2625 -16.357 0)
(-30.4209 9.54165 0)
(-20.2616 14.9056 0)
(-3.80949 12.7978 0)
(12.181 9.82682 1.30407e-15)
(27.8044 8.40914 1.01889e-15)
(41.7351 6.55968 0)
(49.4682 3.73708 0)
(48.3632 -2.18413 0)
(31.7728 -17.6323 0)
(-20.9311 -3.46262e-05 0)
(-31.6714 1.76447e-05 0)
(-27.1518 7.89647e-05 0)
(-5.86698 0.000122078 0)
(25.6202 3.26183e-05 -1.27684e-23)
(52.0148 3.77909e-05 0)
(64.9941 1.23507e-05 0)
(63.6567 3.00097e-05 0)
(52.8478 1.54475e-05 0)
(37.4792 6.01189e-06 0)
(-17.2624 16.357 0)
(-30.4208 -9.54157 0)
(-20.2615 -14.9054 0)
(-3.80949 -12.7976 0)
(12.1811 -9.8268 -1.30408e-15)
(27.8044 -8.40911 -1.01889e-15)
(41.7351 -6.55965 0)
(49.4681 -3.73697 0)
(48.3632 2.18421 0)
(31.7728 17.6323 0)
(167.59 339.133 0)
(127.428 363.669 0)
(116.293 424.57 0)
(84.4346 476.425 0)
(40.2564 504.63 7.90147e-16)
(-7.37778 507.178 7.94137e-16)
(-48.0891 456.564 0)
(-71.6901 370.044 0)
(-75.9809 289.803 0)
(-92.7883 228.774 0)
(10.718 -7.09316 0)
(6.51402 -2.09541 0)
(8.91892 -0.379324 0)
(9.832 0.0553374 0)
(10.0659 0.118515 0)
(10.1013 0.0932708 0)
(10.0868 0.0574693 0)
(10.0634 0.0291393 0)
(10.0416 0.0111546 0)
(10.0242 0.00169721 0)
(10.0131 -0.00223335 0)
(10.0071 -0.00316173 0)
(10.0045 -0.00274633 0)
(10.0043 -0.00192258 0)
(10.0056 -0.00113759 0)
(10.0082 -0.00055637 0)
(10.0122 -0.000194454 0)
(10.018 -5.29407e-06 0)
(10.0261 7.66222e-05 0)
(10.0371 0.00010728 0)
(10.0524 0.000129611 0)
(10.0736 0.000163929 0)
(10.1032 0.00020405 0)
(10.143 0.000202182 0)
(9.95614 0.000100308 0)
(22.4136 -10.3309 0)
(13.598 -3.09721 0)
(10.8933 -0.624183 0)
(10.2936 0.0399534 0)
(10.1172 0.159719 0)
(10.0489 0.133308 0)
(10.0264 0.0847216 0)
(10.0183 0.0445026 0)
(10.0144 0.018042 0)
(10.0114 0.00344481 0)
(10.009 -0.00303342 0)
(10.0074 -0.00483013 0)
(10.0065 -0.00438059 0)
(10.0065 -0.00314833 0)
(10.0075 -0.00189871 0)
(10.0097 -0.000943858 0)
(10.0134 -0.000338687 0)
(10.0189 -1.69328e-05 0)
(10.0268 0.000123178 0)
(10.0378 0.000175914 0)
(10.0531 0.000209633 0)
(10.0743 0.000259176 0)
(10.1041 0.000312635 0)
(10.1464 0.000301392 0)
(9.95954 0.000145866 0)
(25.7943 -4.30224e-06 0)
(16.1698 -1.80404e-05 0)
(11.7586 -1.85893e-05 0)
(10.5453 -1.71255e-05 0)
(10.1671 -1.61391e-05 0)
(10.0387 -1.46628e-05 0)
(10.004 -1.34159e-05 0)
(9.9989 -1.25593e-05 0)
(10.001 -1.17804e-05 0)
(10.0038 -1.08294e-05 0)
(10.0057 -1.00574e-05 0)
(10.0066 -9.06413e-06 0)
(10.007 -8.00732e-06 0)
(10.0074 -6.98621e-06 0)
(10.0084 -5.78479e-06 0)
(10.0103 -4.6723e-06 0)
(10.0138 -3.61611e-06 0)
(10.0191 -2.52961e-06 0)
(10.0269 -2.50561e-06 0)
(10.0379 -2.23845e-06 0)
(10.0531 -1.96905e-06 0)
(10.0743 -1.74861e-06 0)
(10.1044 -1.28774e-06 0)
(10.1478 -7.71487e-07 0)
(9.96066 -2.77189e-07 0)
(22.4136 10.3309 0)
(13.5979 3.09715 0)
(10.8933 0.624144 0)
(10.2936 -0.0399881 0)
(10.1172 -0.15975 0)
(10.0489 -0.133336 0)
(10.0264 -0.0847471 0)
(10.0183 -0.0445263 0)
(10.0144 -0.0180641 0)
(10.0114 -0.00346516 0)
(10.009 0.00301486 0)
(10.0074 0.00481359 0)
(10.0065 0.00436608 0)
(10.0065 0.00313573 0)
(10.0075 0.00188814 0)
(10.0097 0.000935213 0)
(10.0134 0.00033169 0)
(10.0189 1.14018e-05 0)
(10.0268 -0.000128095 0)
(10.0378 -0.000180276 0)
(10.0531 -0.000213461 0)
(10.0743 -0.000262537 0)
(10.1041 -0.000315129 0)
(10.1464 -0.000303216 0)
(9.95954 -0.000146462 0)
(10.718 7.09313 0)
(6.51401 2.09538 0)
(8.91894 0.379304 0)
(9.832 -0.055355 0)
(10.0659 -0.11853 0)
(10.1013 -0.093284 0)
(10.0868 -0.0574814 0)
(10.0634 -0.0291505 0)
(10.0416 -0.0111649 0)
(10.0242 -0.00170673 0)
(10.0131 0.00222486 0)
(10.0071 0.00315426 0)
(10.0045 0.00273982 0)
(10.0043 0.00191697 0)
(10.0056 0.00113279 0)
(10.0082 0.000552398 0)
(10.0122 0.000191073 0)
(10.018 2.29285e-06 0)
(10.0261 -7.9033e-05 0)
(10.0371 -0.000109404 0)
(10.0524 -0.000131471 0)
(10.0736 -0.000165541 0)
(10.1032 -0.000205256 0)
(10.143 -0.000203234 0)
(9.95614 -0.000100627 0)
)
;

boundaryField
{
    inlet
    {
        type            turbulentInlet;
        fluctuationScale (0.02 0.01 0.01);
        referenceField  uniform (10 0 0);
        alpha           0.1;
        value           nonuniform List<vector> 5((9.67222 0.0605864 -0.0356227) (9.98597 -0.041875 -0.118906) (9.96966 -0.117602 0.0067727) (10.3635 0.212419 -0.0935515) (9.95455 0.0859224 0.129232));
    }
    outlet
    {
        type            inletOutlet;
        inletValue      uniform (0 0 0);
        value           nonuniform List<vector> 5((9.95614 0.000100308 0) (9.95954 0.000145866 0) (9.96066 -2.77189e-07 0) (9.95954 -0.000146462 0) (9.95614 -0.000100627 0));
    }
    upInWall
    {
        type            noSlip;
    }
    lwInWall
    {
        type            noSlip;
    }
    upOtWall
    {
        type            noSlip;
    }
    lwOtWall
    {
        type            noSlip;
    }
    defaultFaces
    {
        type            empty;
    }
}


// ************************************************************************* //
