/*--------------------------------*- C++ -*----------------------------------*\
| =========                 |                                                 |
| \\      /  F ield         | OpenFOAM: The Open Source CFD Toolbox           |
|  \\    /   O peration     | Version:  v1912                                 |
|   \\  /    A nd           | Website:  www.openfoam.com                      |
|    \\/     M anipulation  |                                                 |
\*---------------------------------------------------------------------------*/
FoamFile
{
    version     2.0;
    format      ascii;
    class       volVectorField;
    location    "0.1";
    object      U_0;
}
// * * * * * * * * * * * * * * * * * * * * * * * * * * * * * * * * * * * * * //

dimensions      [0 1 -1 0 0 0 0];


internalField   nonuniform List<vector> 
300
(
(3.77383 -0.0492531 0)
(8.31807 -0.0278108 0)
(9.13781 -0.0133452 0)
(9.49727 -0.0056648 0)
(9.68638 -0.0022912 0)
(9.79645 -0.000884469 0)
(9.86526 -0.000330637 0)
(9.91039 -0.000166407 0)
(9.94112 -0.000257581 0)
(9.96256 -0.000594204 0)
(9.97763 -0.0011791 0)
(9.98791 -0.00194285 0)
(9.9941 -0.00262085 0)
(9.99624 -0.00258881 0)
(9.99388 -0.000680944 0)
(9.9862 0.00496059 0)
(9.97319 0.0167573 0)
(9.95685 0.0368625 0)
(9.94261 0.0650257 0)
(9.94918 0.0944972 0)
(10.0492 0.0940897 0)
(10.4918 -0.0547207 0)
(11.982 -0.762946 0)
(14.9021 -3.21359 0)
(4.48947 -7.98645 0)
(3.79409 -0.111304 0)
(8.3518 -0.0695642 0)
(9.1596 -0.0342059 0)
(9.50857 -0.0150135 0)
(9.6916 -0.00630838 0)
(9.79895 -0.00250826 0)
(9.86656 -0.000967782 0)
(9.91107 -0.000453696 0)
(9.94131 -0.000511162 0)
(9.96228 -0.00103207 0)
(9.97697 -0.00196347 0)
(9.98725 -0.00316075 0)
(9.99437 -0.00414964 0)
(9.99926 -0.00388436 0)
(10.0027 -0.000555662 0)
(10.0047 0.00849228 0)
(10.0053 0.0265223 0)
(10.0034 0.0561821 0)
(9.99496 0.0964929 0)
(9.96737 0.135237 0)
(9.88276 0.11946 0)
(9.60975 -0.140333 0)
(8.73578 -1.21879 0)
(6.22442 -4.72324 0)
(-4.38429 -12.9146 0)
(3.81302 -0.14918 0)
(8.38899 -0.0844143 0)
(9.1898 -0.0411456 0)
(9.52512 -0.0192109 0)
(9.69919 -0.00870783 0)
(9.80226 -0.00373978 0)
(9.86784 -0.00153166 0)
(9.91142 -0.000609929 0)
(9.94115 -0.000239188 0)
(9.96177 -6.92998e-05 0)
(9.97626 1.6312e-05 0)
(9.98664 5.28028e-05 0)
(9.99452 6.30026e-05 0)
(10.0012 5.51329e-05 0)
(10.0078 3.89228e-05 0)
(10.0145 2.15595e-05 0)
(10.021 9.99127e-06 0)
(10.0246 4.57501e-06 0)
(10.0152 4.38512e-06 0)
(9.95937 7.41437e-06 0)
(9.755 1.15098e-05 0)
(9.12742 1.41584e-05 0)
(7.38795 6.4709e-06 0)
(3.20229 1.52505e-06 0)
(-7.43028 1.31956e-05 0)
(3.85339 -0.0885806 0)
(8.46113 -0.0577472 0)
(9.22389 -0.0332303 0)
(9.54058 -0.0173048 0)
(9.70683 -0.00852992 0)
(9.80598 -0.00397955 0)
(9.8696 -0.00168895 0)
(9.91232 -0.000537227 0)
(9.94184 0.000196722 0)
(9.96254 0.000981595 0)
(9.9771 0.00202133 0)
(9.9873 0.00326036 0)
(9.99437 0.00425508 0)
(9.99924 0.00397302 0)
(10.0026 0.000617678 0)
(10.0047 -0.00845533 0)
(10.0053 -0.0265028 0)
(10.0034 -0.0561713 0)
(9.99496 -0.0964834 0)
(9.96737 -0.135224 0)
(9.88277 -0.119442 0)
(9.60977 0.140353 0)
(8.73585 1.21881 0)
(6.22444 4.72327 0)
(-4.38425 12.9146 0)
(3.84487 -0.0015545 0)
(8.45311 -0.0150603 0)
(9.23136 -0.0129379 0)
(9.54897 -0.00744173 0)
(9.71171 -0.00383888 0)
(9.80838 -0.0018634 0)
(9.87063 -0.000794366 0)
(9.91267 -0.000214562 0)
(9.94204 0.000182334 0)
(9.96292 0.000613032 0)
(9.97777 0.00122064 0)
(9.98796 0.00198965 0)
(9.99409 0.00266328 0)
(9.9962 0.00262234 0)
(9.99382 0.000704035 0)
(9.98616 -0.0049452 0)
(9.97316 -0.0167478 0)
(9.95684 -0.0368563 0)
(9.94261 -0.0650206 0)
(9.94918 -0.0944917 0)
(10.0492 -0.0940836 0)
(10.4918 0.0547266 0)
(11.982 0.762957 0)
(14.9021 3.21361 0)
(4.48952 7.98647 0)
(168.202 -340.538 0)
(128.197 -366.139 0)
(117.2 -428.124 0)
(85.1138 -480.484 0)
(40.5468 -508.45 -7.9613e-16)
(-7.47308 -510.926 -8.00006e-16)
(-48.5516 -460.213 0)
(-72.2985 -372.904 0)
(-76.5345 -291.636 0)
(-93.3152 -229.915 0)
(-17.3675 -16.427 0)
(-30.7156 9.59598 0)
(-20.4944 14.9944 0)
(-3.89386 12.8828 0)
(12.2368 9.87878 1.31268e-15)
(27.9378 8.42684 1.0255e-15)
(41.943 6.60611 0)
(49.7272 3.78594 0)
(48.5809 -2.16289 0)
(31.8708 -17.626 0)
(-21.026 4.52508e-05 0)
(-31.9229 1.73998e-05 0)
(-27.3897 -1.72254e-05 0)
(-5.99 -2.19796e-05 0)
(25.6345 -3.59942e-05 1.40899e-23)
(52.0864 1.83585e-06 0)
(65.1094 -6.62139e-06 0)
(63.8358 -4.56138e-06 0)
(53.0084 -3.25155e-05 0)
(37.5535 7.5829e-06 0)
(-17.3675 16.4271 0)
(-30.7157 -9.59598 0)
(-20.4945 -14.9944 0)
(-3.89387 -12.8829 0)
(12.2368 -9.87881 -1.31268e-15)
(27.9378 -8.42687 -1.0255e-15)
(41.9431 -6.60614 0)
(49.7272 -3.78594 0)
(48.581 2.16291 0)
(31.8708 17.6261 0)
(168.202 340.538 0)
(128.197 366.141 0)
(117.201 428.127 0)
(85.1139 480.485 0)
(40.5468 508.451 7.9613e-16)
(-7.47309 510.926 8.00007e-16)
(-48.5517 460.213 0)
(-72.2986 372.905 0)
(-76.5346 291.637 0)
(-93.3152 229.916 0)
(10.7773 -7.1107 0)
(6.53775 -2.10631 0)
(8.95037 -0.385695 0)
(9.86592 0.052258 0)
(10.1017 0.117192 0)
(10.1381 0.0927686 0)
(10.1242 0.0572822 0)
(10.101 0.0290665 0)
(10.0793 0.0111279 0)
(10.062 0.00169057 0)
(10.0509 -0.00223421 0)
(10.0448 -0.00316061 0)
(10.0423 -0.00274522 0)
(10.042 -0.00192033 0)
(10.0434 -0.00113555 0)
(10.0459 -0.000554281 0)
(10.05 -0.000193313 0)
(10.0558 -3.51347e-06 0)
(10.0638 7.69497e-05 0)
(10.0749 0.000108176 0)
(10.0902 0.000130225 0)
(10.1114 0.000166015 0)
(10.1408 0.000208795 0)
(10.1803 0.00020709 0)
(9.99431 0.000101389 0)
(22.4328 -10.352 0)
(13.6329 -3.10997 0)
(10.9319 -0.632531 0)
(10.3323 0.0358127 0)
(10.1556 0.157798 0)
(10.0869 0.132551 0)
(10.0643 0.0844373 0)
(10.0561 0.044393 0)
(10.0522 0.018003 0)
(10.0492 0.00343645 0)
(10.0468 -0.00303179 0)
(10.0452 -0.0048263 0)
(10.0443 -0.00437652 0)
(10.0443 -0.00314368 0)
(10.0453 -0.00189418 0)
(10.0475 -0.00094055 0)
(10.0512 -0.00033649 0)
(10.0567 -1.58403e-05 0)
(10.0646 0.000124117 0)
(10.0756 0.000176876 0)
(10.0909 0.000211163 0)
(10.1121 0.000262316 0)
(10.1418 0.00032053 0)
(10.1837 0.000308499 0)
(9.99774 0.000147343 0)
(25.8237 1.83335e-05 0)
(16.2048 1.61404e-05 0)
(11.7974 1.03066e-05 0)
(10.5853 3.90524e-06 0)
(10.2063 2.07893e-06 0)
(10.0773 1.33365e-06 0)
(10.0421 9.49962e-07 0)
(10.0368 6.80042e-07 0)
(10.0388 1.27017e-07 0)
(10.0416 -6.6367e-07 0)
(10.0435 4.58491e-08 0)
(10.0444 -7.49855e-07 0)
(10.0448 -1.43893e-06 0)
(10.0452 -1.88174e-06 0)
(10.0461 -2.49653e-06 0)
(10.0481 -3.04681e-06 0)
(10.0516 -3.42628e-06 0)
(10.0569 -3.91406e-06 0)
(10.0647 -2.80182e-06 0)
(10.0757 -2.27263e-06 0)
(10.0909 -1.69777e-06 0)
(10.1121 -1.11064e-06 0)
(10.142 -8.042e-07 0)
(10.1851 -5.44042e-07 0)
(9.99888 -1.54629e-07 0)
(22.4329 10.3521 0)
(13.6329 3.11 0)
(10.9318 0.632547 0)
(10.3323 -0.0358079 0)
(10.1556 -0.157797 0)
(10.0869 -0.132553 0)
(10.0643 -0.0844398 0)
(10.0561 -0.0443961 0)
(10.0522 -0.0180069 0)
(10.0492 -0.00344103 0)
(10.0468 0.00302682 0)
(10.0452 0.00482059 0)
(10.0443 0.00437007 0)
(10.0443 0.00313681 0)
(10.0453 0.00188673 0)
(10.0475 0.000932504 0)
(10.0512 0.000328268 0)
(10.0567 8.27731e-06 0)
(10.0646 -0.00013083 0)
(10.0756 -0.000182183 0)
(10.0909 -0.000215125 0)
(10.1121 -0.000265028 0)
(10.1418 -0.000322466 0)
(10.1837 -0.000309461 0)
(9.99774 -0.000147653 0)
(10.7773 7.11072 0)
(6.53773 2.10633 0)
(8.95034 0.3857 0)
(9.86591 -0.0522571 0)
(10.1017 -0.117194 0)
(10.1381 -0.0927717 0)
(10.1242 -0.0572857 0)
(10.101 -0.0290703 0)
(10.0793 -0.0111319 0)
(10.062 -0.00169449 0)
(10.0508 0.0022292 0)
(10.0448 0.00315564 0)
(10.0423 0.0027402 0)
(10.042 0.00191534 0)
(10.0434 0.00113059 0)
(10.0459 0.000549282 0)
(10.05 0.000188517 0)
(10.0558 -1.35189e-07 0)
(10.0638 -8.08615e-05 0)
(10.0749 -0.00011121 0)
(10.0902 -0.000132489 0)
(10.1114 -0.000167616 0)
(10.1408 -0.000209927 0)
(10.1803 -0.000207507 0)
(9.99431 -0.000101544 0)
)
;

boundaryField
{
    inlet
    {
        type            turbulentInlet;
        fluctuationScale (0.02 0.01 0.01);
        referenceField  uniform (10 0 0);
        alpha           0.1;
        value           nonuniform List<vector> 5((9.77454 0.139628 -0.00516941) (9.92046 -0.0107819 -0.0789831) (9.95074 -0.113722 -0.00511828) (10.3747 0.183626 -0.151191) (10.1152 0.100991 0.0707515));
    }
    outlet
    {
        type            inletOutlet;
        inletValue      uniform (0 0 0);
        value           nonuniform List<vector> 5((9.99431 0.000101389 0) (9.99774 0.000147343 0) (9.99888 -1.54629e-07 0) (9.99774 -0.000147653 0) (9.99431 -0.000101544 0));
    }
    upInWall
    {
        type            noSlip;
    }
    lwInWall
    {
        type            noSlip;
    }
    upOtWall
    {
        type            noSlip;
    }
    lwOtWall
    {
        type            noSlip;
    }
    defaultFaces
    {
        type            empty;
    }
}


// ************************************************************************* //
